file 76768 1327078630                                           
version 2
run General-0-20110925-16:25:43-6112
attr configname General
attr datetime 20110925-16:25:43
attr experiment General
attr inifile /home/samd/samples/INETMANET-20080920B/examples/inet/nclients/basicHTTP.ini
attr iterationvars ""
attr iterationvars2 $repetition=0
attr measurement ""
attr network NClients
attr processid 6112
attr repetition 0
attr replication #0
attr resultdir results
attr runnumber 0
attr seedset 0
vector 208  NClients.cli[0].tcp  "sent ack"  ETV
208	53686 180 32 2823 1 1.015987999999 7 0 252037 1507247 378637070693
vector 220  NClients.cli[1].tcp  "sent ack"  ETV
220	54596 113 33 1535 1 1.0053088 5 0 250549 1001194 250597607410
vector 232  NClients.cli[2].tcp  "sent ack"  ETV
232	55281 123 34 1593 1 1.005427999998 5 0 250335 1000784 250392230948
vector 244  NClients.cli[3].tcp  "sent ack"  ETV
244	55909 123 35 1711 1 1.005997599999 5 0 250514 1001160 250580537104
vector 256  NClients.cli[4].tcp  "sent ack"  ETV
256	56707 183 36 2780 1 1.015912799999 7 0 251383 1505399 377706454089
vector 268  NClients.cli[5].tcp  "sent ack"  ETV
268	57687 278 37 3038 1 1.016754399999 10 0 254355 2273813 574496622087
vector 280  NClients.cli[6].tcp  "sent ack"  ETV
280	58952 185 38 2860 1 1.016063199999 7 0 251178 1504841 377425928553
vector 292  NClients.cli[7].tcp  "sent ack"  ETV
292	59938 154 39 2500 1 1.014039999999 6 0 250218 1250860 312930163334
vector 304  NClients.cli[8].tcp  "sent ack"  ETV
304	60831 278 40 3199 1 1.018595999999 10 0 254604 2274728 574961420168
vector 316  NClients.cli[9].tcp  "sent ack"  ETV
316	62056 81 41 4019 1 4.00064 4 0 250123 750369 187684545387
vector 328  NClients.cli[10].tcp  "sent ack"  ETV
328	62343 87 42 4064 1 4.0006776 4 0 250132 750396 187698052272
vector 340  NClients.cli[11].tcp  "sent ack"  ETV
340	62649 132 43 4551 1 4.0043912 6 0 1000803 4001682 4003365292506
vector 352  NClients.cli[12].tcp  "sent ack"  ETV
352	63269 155 44 5334 1 4.0110128 7 0 1001027 5003175 5006353164689
vector 364  NClients.cli[13].tcp  "sent ack"  ETV
364	64058 158 45 5376 1 4.011088 7 0 1000778 5002446 5004893819240
vector 376  NClients.cli[14].tcp  "sent ack"  ETV
376	64853 157 46 5419 1 4.0111632 7 0 1000128 5000514 5001028057354
vector 388  NClients.cli[15].tcp  "sent ack"  ETV
388	65644 130 47 4957 1 4.0069824 6 0 1000875 4001902 4003805542802
vector 400  NClients.cli[16].tcp  "sent ack"  ETV
400	66356 213 48 5617 1 4.0118608 9 0 1002139 7009827 7019673511429
vector 412  NClients.cli[17].tcp  "sent ack"  ETV
412	67314 213 49 5759 1 4.0123696 9 0 1002403 7010659 7021341176277
vector 424  NClients.cli[18].tcp  "sent ack"  ETV
424	68269 213 50 5959 1 6.6465119 9 0 1002352 7010542 7021106511426
vector 436  NClients.cli[19].tcp  "sent ack"  ETV
436	69227 105 51 5987 1 7.0006024 5 0 1000113 3000339 3000678038307
vector 448  NClients.cli[20].tcp  "sent ack"  ETV
448	69670 153 52 6216 1 7.0047912 7 0 1000206 5000781 5001562130259
vector 460  NClients.cli[21].tcp  "sent ack"  ETV
460	70233 105 53 5997 1 7.0006776 5 0 1000132 3000396 3000792052272
vector 472  NClients.cli[22].tcp  "sent ack"  ETV
472	70584 24 54 3238 1 4 2 0 0 0 0
vector 484  NClients.cli[23].tcp  "sent ack"  ETV
484	70608 24 55 3239 1 4 2 0 0 0 0
vector 496  NClients.cli[24].tcp  "sent ack"  ETV
496	70632 24 56 3240 1 4 2 0 0 0 0
vector 508  NClients.cli[25].tcp  "sent ack"  ETV
508	70656 24 57 3241 1 4 2 0 0 0 0
vector 520  NClients.cli[26].tcp  "sent ack"  ETV
520	70680 24 58 3242 1 4 2 0 0 0 0
vector 532  NClients.cli[27].tcp  "sent ack"  ETV
532	70704 24 59 3243 1 4 2 0 0 0 0
vector 544  NClients.cli[28].tcp  "sent ack"  ETV
544	70728 24 60 3244 1 4 2 0 0 0 0
vector 556  NClients.cli[29].tcp  "sent ack"  ETV
556	70752 24 61 3245 1 4 2 0 0 0 0
vector 60  NClients.r1.ppp[30].queue  "queue length"  ETV
60	39418 2444 273 6021 1.0000377 7.0016025 124 0 10 548 3218
vector 61  NClients.r1.ppp[30].queue  drops  ETV
61	41862 641 283 4207 1.0000377 4.0010129 33 1 1 33 33
vector 197  NClients.srv.tcp  "rcvd seq"  ETV
197	15993 193 335 2897 1.0001508 1.016138799999 7 250000 250370 1751479 438240045385
vector 198  NClients.srv.tcp  "rcvd ack"  ETV
198	16186 188 335 2897 1.0001508 1.016138799999 7 0 252037 1507247 378637070693
vector 194  NClients.srv.tcp  "send window"  ETV
194	15679 102 335 2409 1.0001508 1.012842799999 4 14336 14336 57344 822083584
vector 196  NClients.srv.tcp  "sent ack"  ETV
196	15831 162 335 2417 1.0001508 1.012880399999 6 250001 250370 1501848 375924682284
vector 569  NClients.srv.tcp  "rcvd seq"  ETV
569	70997 125 356 1620 1.0001884 1.0054972 5 250000 250362 1250726 312863262090
vector 570  NClients.srv.tcp  "rcvd ack"  ETV
570	71122 120 356 1620 1.0001884 1.0054972 5 0 250549 1001194 250597607410
vector 566  NClients.srv.tcp  "send window"  ETV
566	70776 72 356 1609 1.0001884 1.0054596 3 14336 14336 43008 616562688
vector 568  NClients.srv.tcp  "sent ack"  ETV
568	70872 125 356 1623 1.0001884 1.0054972 5 250001 250363 1251451 313226025627
vector 581  NClients.srv.tcp  "rcvd seq"  ETV
581	71749 137 381 1669 1.000226 1.005616399998 5 250000 250378 1250758 312879285770
vector 582  NClients.srv.tcp  "rcvd ack"  ETV
582	71886 132 381 1669 1.000226 1.005616399998 5 0 250335 1000784 250392230948
vector 578  NClients.srv.tcp  "send window"  ETV
578	71508 77 381 1658 1.000226 1.005578799998 3 14336 14336 43008 616562688
vector 580  NClients.srv.tcp  "sent ack"  ETV
580	71611 138 381 1672 1.000226 1.005616399998 5 250001 250379 1251515 313258073051
vector 593  NClients.srv.tcp  "rcvd seq"  ETV
593	72582 138 411 1758 1.0002636 1.006185999999 5 250000 250346 1250694 312847239434
vector 594  NClients.srv.tcp  "rcvd ack"  ETV
594	72720 133 411 1758 1.0002636 1.006185999999 5 0 250514 1001160 250580537104
vector 590  NClients.srv.tcp  "send window"  ETV
590	72339 78 411 1753 1.0002636 1.006148399999 3 14336 14336 43008 616562688
vector 592  NClients.srv.tcp  "sent ack"  ETV
592	72443 139 411 1761 1.0002636 1.006185999999 5 250001 250347 1251387 313193980251
vector 605  NClients.srv.tcp  "rcvd seq"  ETV
605	14777 200 446 2876 1.0003012 1.016063599999 7 250000 250339 1751355 438177957655
vector 606  NClients.srv.tcp  "rcvd ack"  ETV
606	14977 195 446 2876 1.0003012 1.016063599999 7 0 251383 1505399 377706454089
vector 602  NClients.srv.tcp  "send window"  ETV
602	14444 109 446 2346 1.0003012 1.012627599999 4 14336 14336 57344 822083584
vector 604  NClients.srv.tcp  "sent ack"  ETV
604	14609 168 446 2354 1.0003012 1.012665199999 6 250001 250339 1501693 375847072575
vector 209  NClients.cli[0].tcp  "rcvd seq"  ETV
209	53866 170 469 2823 1.0003016 1.015987999999 6 250037 252036 1505247 377632922693
vector 210  NClients.cli[0].tcp  "rcvd ack"  ETV
210	54036 170 469 2823 1.0003016 1.015987999999 6 250001 250370 1501848 375924682284
vector 206  NClients.cli[0].tcp  "send window"  ETV
206	53582 79 469 2803 1.0003016 1.015950399999 3 14336 14336 43008 616562688
vector 212  NClients.cli[0].tcp  cwnd  ETV
212	54301 76 469 2803 1.0003016 1.015950399999 3 1024 3072 6144 14680064
vector 207  NClients.cli[0].tcp  "send seq"  ETV
207	53661 25 473 473 1.0003016 1.0003016 1 250001 250001 250001 62500500001
vector 211  NClients.cli[0].tcp  "unacked bytes"  ETV
211	54206 95 473 2803 1.0003016 1.015950399999 4 0 368 369 135425
vector 72  NClients.cli[0].ppp[0].queue  "queue length"  ETV
72	48376 88 478 2374 1.0003016 1.012729599999 4 0 1 2 2
vector 617  NClients.srv.tcp  "rcvd seq"  ETV
617	19030 293 495 3078 1.0003388 1.016905199999 10 250000 250345 2502411 626206329043
vector 618  NClients.srv.tcp  "rcvd ack"  ETV
618	19323 288 495 3078 1.0003388 1.016905199999 10 0 254355 2273813 574496622087
vector 614  NClients.srv.tcp  "send window"  ETV
614	18433 199 495 2964 1.0003388 1.016528399999 7 14336 14336 100352 1438646272
vector 616  NClients.srv.tcp  "sent ack"  ETV
616	18775 255 495 2972 1.0003388 1.016565999999 9 250001 250345 2252755 563878448067
vector 221  NClients.cli[1].tcp  "rcvd seq"  ETV
221	54709 108 520 2240 1.0003392 1.011950399999 4 250047 250549 1000692 250346308218
vector 222  NClients.cli[1].tcp  "rcvd ack"  ETV
222	54817 108 520 2240 1.0003392 1.011950399999 4 250001 250363 1001088 250544393858
vector 218  NClients.cli[1].tcp  "send window"  ETV
218	54492 79 520 2240 1.0003392 1.011950399999 3 14336 14336 43008 616562688
vector 224  NClients.cli[1].tcp  cwnd  ETV
224	55015 76 520 2240 1.0003392 1.011950399999 3 1024 3072 6144 14680064
vector 219  NClients.cli[1].tcp  "send seq"  ETV
219	54571 25 524 524 1.0003392 1.0003392 1 250001 250001 250001 62500500001
vector 223  NClients.cli[1].tcp  "unacked bytes"  ETV
223	54925 90 524 2240 1.0003392 1.011950399999 4 0 361 362 130322
vector 76  NClients.cli[1].ppp[0].queue  "queue length"  ETV
76	48464 78 529 1547 1.0003392 1.0053464 4 0 1 2 2
vector 629  NClients.srv.tcp  "rcvd seq"  ETV
629	17248 199 549 2913 1.0003764 1.016213999999 7 250000 250341 1751363 438181963083
vector 630  NClients.srv.tcp  "rcvd ack"  ETV
630	17447 194 549 2913 1.0003764 1.016213999999 7 0 251178 1504841 377425928553
vector 626  NClients.srv.tcp  "send window"  ETV
626	16914 107 549 2622 1.0003764 1.014321199999 4 14336 14336 57344 822083584
vector 628  NClients.srv.tcp  "sent ack"  ETV
628	17078 170 549 2630 1.0003764 1.014358799999 6 250001 250341 1501703 375852079363
vector 233  NClients.cli[2].tcp  "rcvd seq"  ETV
233	55404 82 574 1590 1.0003768 1.005427999998 3 250056 250057 750170 187585009634
vector 234  NClients.cli[2].tcp  "rcvd ack"  ETV
234	55486 82 574 1590 1.0003768 1.005427999998 3 250001 250378 750757 187878785769
vector 230  NClients.cli[2].tcp  "send window"  ETV
230	55207 49 574 1496 1.0003768 1.0049456 2 14336 14336 28672 411041792
vector 236  NClients.cli[2].tcp  cwnd  ETV
236	55637 47 574 1496 1.0003768 1.0049456 2 1024 2048 3072 5242880
vector 231  NClients.cli[2].tcp  "send seq"  ETV
231	55256 25 578 578 1.0003768 1.0003768 1 250001 250001 250001 62500500001
vector 235  NClients.cli[2].tcp  "unacked bytes"  ETV
235	55568 69 578 1593 1.0003768 1.005427999998 3 0 377 378 142130
vector 80  NClients.cli[2].ppp[0].queue  "queue length"  ETV
80	48542 88 583 1610 1.0003768 1.005465599998 4 0 1 2 2
vector 641  NClients.srv.tcp  "rcvd seq"  ETV
641	13608 169 603 2576 1.000414 1.014190799999 6 250000 250313 1500939 375469792659
vector 642  NClients.srv.tcp  "rcvd ack"  ETV
642	13777 164 603 2576 1.000414 1.014190799999 6 0 250218 1250860 312930163334
vector 638  NClients.srv.tcp  "send window"  ETV
638	13366 78 603 2066 1.000414 1.009585999999 3 14336 14336 43008 616562688
vector 640  NClients.srv.tcp  "sent ack"  ETV
640	13470 138 603 2074 1.000414 1.009623599999 5 250001 250313 1251251 313125890627
vector 245  NClients.cli[3].tcp  "rcvd seq"  ETV
245	56032 118 628 2250 1.0004144 1.011987999999 4 250065 250514 1000711 250355777133
vector 246  NClients.cli[3].tcp  "rcvd ack"  ETV
246	56150 118 628 2250 1.0004144 1.011987999999 4 250001 250347 1001040 250520359842
vector 242  NClients.cli[3].tcp  "send window"  ETV
242	55800 84 628 2250 1.0004144 1.011987999999 3 14336 14336 43008 616562688
vector 248  NClients.cli[3].tcp  cwnd  ETV
248	56368 81 628 2250 1.0004144 1.011987999999 3 1024 3072 6144 14680064
vector 243  NClients.cli[3].tcp  "send seq"  ETV
243	55884 25 632 632 1.0004144 1.0004144 1 250001 250001 250001 62500500001
vector 247  NClients.cli[3].tcp  "unacked bytes"  ETV
247	56268 100 632 2250 1.0004144 1.011987999999 4 0 345 346 119026
vector 84  NClients.cli[3].ppp[0].queue  "queue length"  ETV
84	48630 87 637 1718 1.0004144 1.006035199999 4 0 1 2 2
vector 653  NClients.srv.tcp  "rcvd seq"  ETV
653	21125 294 657 3225 1.0004516 1.018746799999 10 250000 250337 2502355 626178290947
vector 654  NClients.srv.tcp  "rcvd ack"  ETV
654	21419 289 657 3225 1.0004516 1.018746799999 10 0 254604 2274728 574961420168
vector 650  NClients.srv.tcp  "send window"  ETV
650	20523 199 657 3144 1.0004516 1.018369999999 7 14336 14336 100352 1438646272
vector 652  NClients.srv.tcp  "sent ack"  ETV
652	20867 258 657 3152 1.0004516 1.018407599999 9 250001 250337 2252691 563846404515
vector 257  NClients.cli[4].tcp  "rcvd seq"  ETV
257	56890 179 682 2780 1.000452 1.015912799999 6 250075 251382 1504091 377050547025
vector 258  NClients.cli[4].tcp  "rcvd ack"  ETV
258	57069 179 682 2780 1.000452 1.015912799999 6 250001 250339 1501693 375847072575
vector 254  NClients.cli[4].tcp  "send window"  ETV
254	56600 83 682 2764 1.000452 1.015875199999 3 14336 14336 43008 616562688
vector 260  NClients.cli[4].tcp  cwnd  ETV
260	57347 80 682 2764 1.000452 1.015875199999 3 1024 3072 6144 14680064
vector 255  NClients.cli[4].tcp  "send seq"  ETV
255	56683 24 686 686 1.000452 1.000452 1 250001 250001 250001 62500500001
vector 259  NClients.cli[4].tcp  "unacked bytes"  ETV
259	57248 99 686 2764 1.000452 1.015875199999 4 0 337 338 113570
vector 88  NClients.cli[4].ppp[0].queue  "queue length"  ETV
88	48717 87 691 2311 1.000452 1.012514399999 4 0 1 2 2
vector 665  NClients.srv.tcp  "rcvd seq"  ETV
665	73482 77 711 4562 1.0004892 4.0044252 3 250000 250001 750002 187501000002
vector 666  NClients.srv.tcp  "rcvd ack"  ETV
666	73559 72 711 4562 1.0004892 4.0044252 3 0 250123 500246 125123030258
vector 662  NClients.srv.tcp  "send window"  ETV
662	73174 49 711 1153 1.0004892 1.0018236 2 14336 14336 28672 411041792
vector 664  NClients.srv.tcp  "sent ack"  ETV
664	73327 155 711 6158 1.0004892 7.0044252 6 250001 250324 1501621 375811024881
vector 269  NClients.cli[5].tcp  "rcvd seq"  ETV
269	57965 273 736 3038 1.0004896 1.016754399999 9 250084 254354 2269542 572342163118
vector 270  NClients.cli[5].tcp  "rcvd ack"  ETV
270	58238 273 736 3038 1.0004896 1.016754399999 9 250001 250345 2252755 563878448067
vector 266  NClients.cli[5].tcp  "send window"  ETV
266	57578 84 736 3028 1.0004896 1.016716799999 3 14336 14336 43008 616562688
vector 272  NClients.cli[5].tcp  cwnd  ETV
272	58611 81 736 3028 1.0004896 1.016716799999 3 1024 3072 6144 14680064
vector 267  NClients.cli[5].tcp  "send seq"  ETV
267	57662 25 740 740 1.0004896 1.0004896 1 250001 250001 250001 62500500001
vector 271  NClients.cli[5].tcp  "unacked bytes"  ETV
271	58511 100 740 3028 1.0004896 1.016716799999 4 0 343 344 117650
vector 92  NClients.cli[5].ppp[0].queue  "queue length"  ETV
92	48804 88 745 2929 1.0004896 1.016415199999 4 0 1 2 2
vector 677  NClients.srv.tcp  "rcvd seq"  ETV
677	73846 51 765 1207 1.0005268 1.0021876 2 250000 250001 500001 125000500001
vector 678  NClients.srv.tcp  "rcvd ack"  ETV
678	73897 46 765 1207 1.0005268 1.0021876 2 0 250132 250132 62566017424
vector 674  NClients.srv.tcp  "send window"  ETV
674	73772 49 765 1207 1.0005268 1.0021876 2 14336 14336 28672 411041792
vector 676  NClients.srv.tcp  "sent ack"  ETV
676	73821 25 765 765 1.0005268 1.0005268 1 250001 250001 250001 62500500001
vector 281  NClients.cli[6].tcp  "rcvd seq"  ETV
281	59137 180 790 2860 1.0005272 1.016063199999 6 250094 251177 1503757 376882549705
vector 282  NClients.cli[6].tcp  "rcvd ack"  ETV
282	59317 180 790 2860 1.0005272 1.016063199999 6 250001 250341 1501703 375852079363
vector 278  NClients.cli[6].tcp  "send window"  ETV
278	58843 84 790 2846 1.0005272 1.016025599999 3 14336 14336 43008 616562688
vector 284  NClients.cli[6].tcp  cwnd  ETV
284	59597 81 790 2846 1.0005272 1.016025599999 3 1024 3072 6144 14680064
vector 279  NClients.cli[6].tcp  "send seq"  ETV
279	58927 25 794 794 1.0005272 1.0005272 1 250001 250001 250001 62500500001
vector 283  NClients.cli[6].tcp  "unacked bytes"  ETV
283	59497 100 794 2846 1.0005272 1.016025599999 4 0 339 340 114922
vector 96  NClients.cli[6].ppp[0].queue  "queue length"  ETV
96	48892 88 799 2583 1.0005272 1.014207999999 4 0 1 2 2
vector 200  NClients.srv.tcp  cwnd  ETV
200	15322 98 819 2409 1.0005644 1.012842799999 4 1024 4096 10240 31457280
vector 199  NClients.srv.tcp  "unacked bytes"  ETV
199	16374 137 819 2417 1.0005644 1.012880399999 6 0 1024 1999 1997253
vector 293  NClients.cli[7].tcp  "rcvd seq"  ETV
293	60092 149 841 2500 1.0005648 1.014039999999 5 250103 250217 1250745 312872626419
vector 294  NClients.cli[7].tcp  "rcvd ack"  ETV
294	60241 149 841 2500 1.0005648 1.014039999999 5 250001 250313 1251251 313125890627
vector 290  NClients.cli[7].tcp  "send window"  ETV
290	59829 84 841 2490 1.0005648 1.014002399999 3 14336 14336 43008 616562688
vector 296  NClients.cli[7].tcp  cwnd  ETV
296	60490 81 841 2490 1.0005648 1.014002399999 3 1024 3072 6144 14680064
vector 291  NClients.cli[7].tcp  "send seq"  ETV
291	59913 25 845 845 1.0005648 1.0005648 1 250001 250001 250001 62500500001
vector 295  NClients.cli[7].tcp  "unacked bytes"  ETV
295	60390 100 845 2490 1.0005648 1.014002399999 4 0 311 312 96722
vector 100  NClients.cli[7].ppp[0].queue  "queue length"  ETV
100	48980 92 850 2031 1.0005648 1.009472799999 4 0 1 2 2
vector 572  NClients.srv.tcp  cwnd  ETV
572	71324 68 869 1609 1.000602 1.0054596 3 1024 3072 6144 14680064
vector 571  NClients.srv.tcp  "unacked bytes"  ETV
571	71242 82 869 1623 1.000602 1.0054972 4 0 501 502 251002
vector 305  NClients.cli[8].tcp  "rcvd seq"  ETV
305	61109 273 887 3199 1.0006024 1.018595999999 9 250112 254603 2270236 572694235896
vector 306  NClients.cli[8].tcp  "rcvd ack"  ETV
306	61382 273 887 3199 1.0006024 1.018595999999 9 250001 250337 2252691 563846404515
vector 302  NClients.cli[8].tcp  "send window"  ETV
302	60722 84 887 3194 1.0006024 1.018558399999 3 14336 14336 43008 616562688
vector 308  NClients.cli[8].tcp  cwnd  ETV
308	61755 81 887 3194 1.0006024 1.018558399999 3 1024 3072 6144 14680064
vector 303  NClients.cli[8].tcp  "send seq"  ETV
303	60806 25 891 891 1.0006024 1.0006024 1 250001 250001 250001 62500500001
vector 307  NClients.cli[8].tcp  "unacked bytes"  ETV
307	61655 100 891 3194 1.0006024 1.018558399999 4 0 335 336 112226
vector 104  NClients.cli[8].ppp[0].queue  "queue length"  ETV
104	49072 90 896 3109 1.0006024 1.018256799999 4 0 1 2 2
vector 584  NClients.srv.tcp  cwnd  ETV
584	72113 75 915 1658 1.0006396 1.005578799998 3 1024 3072 6144 14680064
vector 583  NClients.srv.tcp  "unacked bytes"  ETV
583	72018 95 915 1672 1.0006396 1.005616399998 4 0 278 279 77285
vector 317  NClients.cli[9].tcp  "rcvd seq"  ETV
317	62137 23 928 928 1.00064 1.00064 1 250122 250122 250122 62561014884
vector 318  NClients.cli[9].tcp  "rcvd ack"  ETV
318	62160 23 928 928 1.00064 1.00064 1 250001 250001 250001 62500500001
vector 314  NClients.cli[9].tcp  "send window"  ETV
314	61987 22 928 928 1.00064 1.00064 1 14336 14336 14336 205520896
vector 320  NClients.cli[9].tcp  cwnd  ETV
320	62203 43 928 4019 1.00064 4.00064 2 1024 1024 2048 2097152
vector 315  NClients.cli[9].tcp  "send seq"  ETV
315	62009 47 932 4019 1.00064 4.00064 2 250001 250001 500002 125001000002
vector 319  NClients.cli[9].tcp  "unacked bytes"  ETV
319	62183 20 932 932 1.00064 1.00064 1 323 323 323 104329
vector 108  NClients.cli[9].ppp[0].queue  "queue length"  ETV
108	49162 38 937 964 1.00064 1.0006776 2 0 1 1 1
vector 596  NClients.srv.tcp  cwnd  ETV
596	72948 75 960 1753 1.0006772 1.006148399999 3 1024 3072 6144 14680064
vector 595  NClients.srv.tcp  "unacked bytes"  ETV
595	72853 95 960 1761 1.0006772 1.006185999999 4 0 448 449 200705
vector 329  NClients.cli[10].tcp  "rcvd seq"  ETV
329	62430 25 968 968 1.0006776 1.0006776 1 250131 250131 250131 62565517161
vector 330  NClients.cli[10].tcp  "rcvd ack"  ETV
330	62455 25 968 968 1.0006776 1.0006776 1 250001 250001 250001 62500500001
vector 326  NClients.cli[10].tcp  "send window"  ETV
326	62268 24 968 968 1.0006776 1.0006776 1 14336 14336 14336 205520896
vector 332  NClients.cli[10].tcp  cwnd  ETV
332	62502 47 968 4064 1.0006776 4.0006776 2 1024 1024 2048 2097152
vector 327  NClients.cli[10].tcp  "send seq"  ETV
327	62292 51 972 4064 1.0006776 4.0006776 2 250001 250001 500002 125001000002
vector 331  NClients.cli[10].tcp  "unacked bytes"  ETV
331	62480 22 972 972 1.0006776 1.0006776 1 355 355 355 126025
vector 112  NClients.cli[10].ppp[0].queue  "queue length"  ETV
112	49200 41 977 1002 1.0006776 1.0007152 2 0 1 1 1
vector 608  NClients.srv.tcp  cwnd  ETV
608	14037 106 1000 2346 1.0007148 1.012627599999 4 1024 4096 10240 31457280
vector 607  NClients.srv.tcp  "unacked bytes"  ETV
607	15172 150 1000 2354 1.0007148 1.012665199999 6 0 1024 1307 1128101
vector 620  NClients.srv.tcp  cwnd  ETV
620	17789 193 1022 2964 1.0007524 1.016528399999 7 1024 7168 28672 146800640
vector 619  NClients.srv.tcp  "unacked bytes"  ETV
619	19611 266 1022 2972 1.0007524 1.016565999999 10 0 3072 9390 19952874
vector 632  NClients.srv.tcp  cwnd  ETV
632	16511 102 1047 2622 1.00079 1.014321199999 4 1024 4096 10240 31457280
vector 631  NClients.srv.tcp  "unacked bytes"  ETV
631	17641 148 1047 2630 1.00079 1.014358799999 6 0 1024 1083 1051941
vector 644  NClients.srv.tcp  cwnd  ETV
644	13138 77 1062 2066 1.0008276 1.009585999999 3 1024 3072 6144 14680064
vector 643  NClients.srv.tcp  "unacked bytes"  ETV
643	13941 96 1062 2074 1.0008276 1.009623599999 4 0 113 114 12770
vector 656  NClients.srv.tcp  cwnd  ETV
656	19877 193 1072 3144 1.0008652 1.018369999999 7 1024 7168 28672 146800640
vector 64  NClients.r2.ppp[1].queue  "queue length"  ETV
64	44675 756 1104 6036 1.0011594 7.0019362 38 0 1 19 19
vector 68  NClients.r3.ppp[1].queue  "queue length"  ETV
68	47616 760 1120 6081 1.0014915 7.0022699 38 0 1 19 19
vector 195  NClients.srv.tcp  "send seq"  ETV
195	15781 50 1134 1572 1.001786 1.005402 2 250038 251062 501100 125551129288
vector 192  NClients.srv.ppp[0].queue  "queue length"  ETV
192	50069 3267 1140 6188 1.001786 7.0047244 145 0 10 659 4277
vector 668  NClients.srv.tcp  cwnd  ETV
668	73676 72 1153 6158 1.0018236 7.0044252 3 1024 2048 4096 6291456
vector 667  NClients.srv.tcp  "unacked bytes"  ETV
667	73631 45 1153 4565 1.0018236 4.0044252 2 0 2048 2048 4194304
vector 214  NClients.cli[0].tcp  "measured RTT"  ETV
214	54377 29 1183 1183 1.0019368 1.0019368 1 0.0016352 0.0016352 0.0016352 2.67387904e-06
vector 215  NClients.cli[0].tcp  "smoothed RTT"  ETV
215	54406 29 1183 1183 1.0019368 1.0019368 1 0.0002044 0.0002044 0.0002044 4.177936e-08
vector 216  NClients.cli[0].tcp  RTTVAR  ETV
216	54435 29 1183 1183 1.0019368 1.0019368 1 0.6564544 0.6564544 0.6564544 0.43093237927936
vector 217  NClients.cli[0].tcp  RTO  ETV
217	54464 28 1183 1183 1.0019368 1.0019368 1 2.626022 2.626022 2.626022 6.895991544484
vector 567  NClients.srv.tcp  "send seq"  ETV
567	70848 24 1192 1192 1.00215 1.00215 1 250048 250048 250048 62524002304
vector 680  NClients.srv.tcp  cwnd  ETV
680	73964 48 1207 1207 1.0021876 1.0021876 2 1024 2048 3072 5242880
vector 679  NClients.srv.tcp  "unacked bytes"  ETV
679	73943 21 1207 1207 1.0021876 1.0021876 1 0 0 0 0
vector 579  NClients.srv.tcp  "send seq"  ETV
579	71585 26 1233 1233 1.0025412 1.0025412 1 250057 250057 250057 62528503249
vector 66  NClients.r3.ppp[0].queue  "queue length"  ETV
66	45431 2185 1249 6143 1.0027181 7.0038301 98 0 8 217 797
vector 591  NClients.srv.tcp  "send seq"  ETV
591	72417 26 1268 1268 1.0028548 1.0028548 1 250066 250066 250066 62533004356
vector 603  NClients.srv.tcp  "send seq"  ETV
603	14553 56 1297 1853 1.003162 1.007503599999 2 250076 251100 501176 125589215776
vector 615  NClients.srv.tcp  "send seq"  ETV
615	18632 143 1331 2674 1.003474 1.014934799999 5 250085 254181 1260665 317865734205
vector 62  NClients.r2.ppp[0].queue  "queue length"  ETV
62	42503 2172 1355 6182 1.003575 7.004687 98 0 8 229 881
vector 627  NClients.srv.tcp  "send seq"  ETV
627	17021 57 1373 2108 1.0037828 1.010149199999 2 250095 251119 501214 125608261186
vector 639  NClients.srv.tcp  "send seq"  ETV
639	13444 26 1411 1411 1.0040692 1.0040692 1 250104 250104 250104 62552010816
vector 651  NClients.srv.tcp  "send seq"  ETV
651	20722 145 1434 3059 1.0043748 1.016807599999 5 250113 254209 1260805 317936335365
vector 226  NClients.cli[1].tcp  "measured RTT"  ETV
226	55091 29 1459 1459 1.0044696 1.0044696 1 0.0041304 0.0041304 0.0041304 1.706020416e-05
vector 227  NClients.cli[1].tcp  "smoothed RTT"  ETV
227	55120 29 1459 1459 1.0044696 1.0044696 1 0.0005163 0.0005163 0.0005163 2.6656569e-07
vector 228  NClients.cli[1].tcp  RTTVAR  ETV
228	55149 29 1459 1459 1.0044696 1.0044696 1 0.6567663 0.6567663 0.6567663 0.43134197281569
vector 229  NClients.cli[1].tcp  RTO  ETV
229	55178 29 1459 1459 1.0044696 1.0044696 1 2.6275815 2.6275815 2.6275815 6.9041845391422
vector 238  NClients.cli[2].tcp  "measured RTT"  ETV
238	55684 29 1496 1496 1.0049456 1.0049456 1 0.0045688 0.0045688 0.0045688 2.087393344e-05
vector 239  NClients.cli[2].tcp  "smoothed RTT"  ETV
239	55713 29 1496 1496 1.0049456 1.0049456 1 0.0005711 0.0005711 0.0005711 3.2615521e-07
vector 240  NClients.cli[2].tcp  RTTVAR  ETV
240	55742 29 1496 1496 1.0049456 1.0049456 1 0.6568211 0.6568211 0.6568211 0.43141395740521
vector 241  NClients.cli[2].tcp  RTO  ETV
241	55771 29 1496 1496 1.0049456 1.0049456 1 2.6278555 2.6278555 2.6278555 6.9056245288802
vector 250  NClients.cli[3].tcp  "measured RTT"  ETV
250	56449 39 1513 1513 1.005243199999 1.005243199999 1 0.004828799999 0.004828799999 0.004828799999 2.3317309430342e-05
vector 251  NClients.cli[3].tcp  "smoothed RTT"  ETV
251	56488 39 1513 1513 1.005243199999 1.005243199999 1 0.000603599999 0.000603599999 0.000603599999 3.643329587928e-07
vector 252  NClients.cli[3].tcp  RTTVAR  ETV
252	56527 34 1513 1513 1.005243199999 1.005243199999 1 0.6568536 0.6568536 0.6568536 0.43145665183296
vector 253  NClients.cli[3].tcp  RTO  ETV
253	56561 39 1513 1513 1.005243199999 1.005243199999 1 2.628017999999 2.628017999999 2.628017999999 6.9064786083187
vector 202  NClients.srv.tcp  "measured RTT"  ETV
202	15420 66 1572 2409 1.005402 1.012842799999 2 0.003616 0.007440799999 0.011056799999 6.8440960625118e-05
vector 203  NClients.srv.tcp  "smoothed RTT"  ETV
203	15486 66 1572 2409 1.005402 1.012842799999 2 0.000452 0.001325599999 0.001777599999 1.9615193573488e-06
vector 204  NClients.srv.tcp  RTTVAR  ETV
204	15552 62 1572 2409 1.005402 1.012842799999 2 0.57548785 0.656702 1.23218985 0.76244378230162
vector 205  NClients.srv.tcp  RTO  ETV
205	15614 65 1572 2409 1.005402 1.012842799999 2 2.303276999999 2.62726 4.930536999999 12.207580046324
vector 574  NClients.srv.tcp  "measured RTT"  ETV
574	71392 29 1609 1609 1.0054596 1.0054596 1 0.0033096 0.0033096 0.0033096 1.095345216e-05
vector 575  NClients.srv.tcp  "smoothed RTT"  ETV
575	71421 29 1609 1609 1.0054596 1.0054596 1 0.0004137 0.0004137 0.0004137 1.7114769e-07
vector 576  NClients.srv.tcp  RTTVAR  ETV
576	71450 29 1609 1609 1.0054596 1.0054596 1 0.6566637 0.6566637 0.6566637 0.43120721489769
vector 577  NClients.srv.tcp  RTO  ETV
577	71479 29 1609 1609 1.0054596 1.0054596 1 2.6270685 2.6270685 2.6270685 6.9014889036923
vector 193  NClients.srv.ppp[0].queue  drops  ETV
193	53336 246 1628 5012 1.0054972 4.0071708 11 1 1 11 11
vector 586  NClients.srv.tcp  "measured RTT"  ETV
586	72188 39 1658 1658 1.005578799998 1.005578799998 1 0.003037599998 0.003037599998 0.003037599998 9.2270137478496e-06
vector 587  NClients.srv.tcp  "smoothed RTT"  ETV
587	72227 39 1658 1658 1.005578799998 1.005578799998 1 0.000379699999 0.000379699999 0.000379699999 1.441720892406e-07
vector 588  NClients.srv.tcp  RTTVAR  ETV
588	72266 34 1658 1658 1.005578799998 1.005578799998 1 0.6566297 0.6566297 0.6566297 0.43116256292209
vector 589  NClients.srv.tcp  RTO  ETV
589	72300 39 1658 1658 1.005578799998 1.005578799998 1 2.626898499999 2.626898499999 2.626898499999 6.900595729297
vector 262  NClients.cli[4].tcp  "measured RTT"  ETV
262	57427 39 1703 1703 1.005676799999 1.005676799999 1 0.005224799999 0.005224799999 0.005224799999 2.729853502955e-05
vector 263  NClients.cli[4].tcp  "smoothed RTT"  ETV
263	57466 39 1703 1703 1.005676799999 1.005676799999 1 0.000653099999 0.000653099999 0.000653099999 4.265396086938e-07
vector 264  NClients.cli[4].tcp  RTTVAR  ETV
264	57505 34 1703 1703 1.005676799999 1.005676799999 1 0.6569031 0.6569031 0.6569031 0.43152168278961
vector 265  NClients.cli[4].tcp  RTO  ETV
265	57539 39 1703 1703 1.005676799999 1.005676799999 1 2.628265499999 2.628265499999 2.628265499999 6.907779538485
vector 598  NClients.srv.tcp  "measured RTT"  ETV
598	73023 39 1753 1753 1.006148399999 1.006148399999 1 0.003293599999 0.003293599999 0.003293599999 1.0847800953413e-05
vector 599  NClients.srv.tcp  "smoothed RTT"  ETV
599	73062 39 1753 1753 1.006148399999 1.006148399999 1 0.000411699999 0.000411699999 0.000411699999 1.694968891766e-07
vector 600  NClients.srv.tcp  RTTVAR  ETV
600	73101 34 1753 1753 1.006148399999 1.006148399999 1 0.6566617 0.6566617 0.6566617 0.43120458824689
vector 601  NClients.srv.tcp  RTO  ETV
601	73135 39 1753 1753 1.006148399999 1.006148399999 1 2.627058499999 2.627058499999 2.627058499999 6.901436362417
vector 274  NClients.cli[5].tcp  "measured RTT"  ETV
274	58692 39 1798 1798 1.006571199999 1.006571199999 1 0.006081599999 0.006081599999 0.006081599999 3.6985858547837e-05
vector 275  NClients.cli[5].tcp  "smoothed RTT"  ETV
275	58731 39 1798 1798 1.006571199999 1.006571199999 1 0.000760199999 0.000760199999 0.000760199999 5.779040384796e-07
vector 276  NClients.cli[5].tcp  RTTVAR  ETV
276	58770 34 1798 1798 1.006571199999 1.006571199999 1 0.6570102 0.6570102 0.6570102 0.43166240290404
vector 277  NClients.cli[5].tcp  RTO  ETV
277	58804 39 1798 1798 1.006571199999 1.006571199999 1 2.628800999999 2.628800999999 2.628800999999 6.9105946975957
vector 610  NClients.srv.tcp  "measured RTT"  ETV
610	14143 72 1853 2346 1.007503599999 1.012627599999 2 0.004341599999 0.005124 0.009465599999 4.5104866551317e-05
vector 611  NClients.srv.tcp  "smoothed RTT"  ETV
611	14215 78 1853 2346 1.007503599999 1.012627599999 2 0.000542699999 0.001115362499 0.001658062498 1.5385567930901e-06
vector 612  NClients.srv.tcp  RTTVAR  ETV
612	14293 73 1853 2346 1.007503599999 1.012627599999 2 0.575266275001 0.6567927 1.232058975001 0.76230793792682
vector 613  NClients.srv.tcp  RTO  ETV
613	14366 78 1853 2346 1.007503599999 1.012627599999 2 2.302180462503 2.627713499999 4.929893962502 12.204913120008