version 2
run General-0-20110925-16:25:43-6112
attr configname General
attr datetime 20110925-16:25:43
attr experiment General
attr inifile /home/samd/samples/INETMANET-20080920B/examples/inet/nclients/basicHTTP.ini
attr iterationvars ""
attr iterationvars2 $repetition=0
attr measurement ""
attr network NClients
attr processid 6112
attr repetition 0
attr replication #0
attr resultdir results
attr runnumber 0
attr seedset 0

vector 208  NClients.cli[0].tcp  "sent ack"  ETV
vector 220  NClients.cli[1].tcp  "sent ack"  ETV
vector 232  NClients.cli[2].tcp  "sent ack"  ETV
vector 244  NClients.cli[3].tcp  "sent ack"  ETV
vector 256  NClients.cli[4].tcp  "sent ack"  ETV
vector 268  NClients.cli[5].tcp  "sent ack"  ETV
vector 280  NClients.cli[6].tcp  "sent ack"  ETV
vector 292  NClients.cli[7].tcp  "sent ack"  ETV
vector 304  NClients.cli[8].tcp  "sent ack"  ETV
vector 316  NClients.cli[9].tcp  "sent ack"  ETV
vector 328  NClients.cli[10].tcp  "sent ack"  ETV
vector 340  NClients.cli[11].tcp  "sent ack"  ETV
vector 352  NClients.cli[12].tcp  "sent ack"  ETV
vector 364  NClients.cli[13].tcp  "sent ack"  ETV
vector 376  NClients.cli[14].tcp  "sent ack"  ETV
vector 388  NClients.cli[15].tcp  "sent ack"  ETV
vector 400  NClients.cli[16].tcp  "sent ack"  ETV
vector 412  NClients.cli[17].tcp  "sent ack"  ETV
vector 424  NClients.cli[18].tcp  "sent ack"  ETV
vector 436  NClients.cli[19].tcp  "sent ack"  ETV
vector 448  NClients.cli[20].tcp  "sent ack"  ETV
vector 460  NClients.cli[21].tcp  "sent ack"  ETV
vector 472  NClients.cli[22].tcp  "sent ack"  ETV
vector 484  NClients.cli[23].tcp  "sent ack"  ETV
vector 496  NClients.cli[24].tcp  "sent ack"  ETV
vector 508  NClients.cli[25].tcp  "sent ack"  ETV
vector 520  NClients.cli[26].tcp  "sent ack"  ETV
vector 532  NClients.cli[27].tcp  "sent ack"  ETV
vector 544  NClients.cli[28].tcp  "sent ack"  ETV
vector 556  NClients.cli[29].tcp  "sent ack"  ETV
vector 60  NClients.r1.ppp[30].queue  "queue length"  ETV
vector 61  NClients.r1.ppp[30].queue  drops  ETV
vector 197  NClients.srv.tcp  "rcvd seq"  ETV
vector 198  NClients.srv.tcp  "rcvd ack"  ETV
vector 194  NClients.srv.tcp  "send window"  ETV
vector 196  NClients.srv.tcp  "sent ack"  ETV
vector 569  NClients.srv.tcp  "rcvd seq"  ETV
vector 570  NClients.srv.tcp  "rcvd ack"  ETV
vector 566  NClients.srv.tcp  "send window"  ETV
vector 568  NClients.srv.tcp  "sent ack"  ETV
vector 581  NClients.srv.tcp  "rcvd seq"  ETV
vector 582  NClients.srv.tcp  "rcvd ack"  ETV
vector 578  NClients.srv.tcp  "send window"  ETV
vector 580  NClients.srv.tcp  "sent ack"  ETV
vector 593  NClients.srv.tcp  "rcvd seq"  ETV
vector 594  NClients.srv.tcp  "rcvd ack"  ETV
vector 590  NClients.srv.tcp  "send window"  ETV
vector 592  NClients.srv.tcp  "sent ack"  ETV
vector 605  NClients.srv.tcp  "rcvd seq"  ETV
vector 606  NClients.srv.tcp  "rcvd ack"  ETV
vector 602  NClients.srv.tcp  "send window"  ETV
vector 604  NClients.srv.tcp  "sent ack"  ETV
vector 209  NClients.cli[0].tcp  "rcvd seq"  ETV
vector 210  NClients.cli[0].tcp  "rcvd ack"  ETV
vector 206  NClients.cli[0].tcp  "send window"  ETV
vector 212  NClients.cli[0].tcp  cwnd  ETV
vector 207  NClients.cli[0].tcp  "send seq"  ETV
vector 211  NClients.cli[0].tcp  "unacked bytes"  ETV
vector 72  NClients.cli[0].ppp[0].queue  "queue length"  ETV
vector 617  NClients.srv.tcp  "rcvd seq"  ETV
vector 618  NClients.srv.tcp  "rcvd ack"  ETV
vector 614  NClients.srv.tcp  "send window"  ETV
vector 616  NClients.srv.tcp  "sent ack"  ETV
vector 221  NClients.cli[1].tcp  "rcvd seq"  ETV
vector 222  NClients.cli[1].tcp  "rcvd ack"  ETV
vector 218  NClients.cli[1].tcp  "send window"  ETV
vector 224  NClients.cli[1].tcp  cwnd  ETV
vector 219  NClients.cli[1].tcp  "send seq"  ETV
vector 223  NClients.cli[1].tcp  "unacked bytes"  ETV
vector 76  NClients.cli[1].ppp[0].queue  "queue length"  ETV
vector 629  NClients.srv.tcp  "rcvd seq"  ETV
vector 630  NClients.srv.tcp  "rcvd ack"  ETV
vector 626  NClients.srv.tcp  "send window"  ETV
vector 628  NClients.srv.tcp  "sent ack"  ETV
vector 233  NClients.cli[2].tcp  "rcvd seq"  ETV
vector 234  NClients.cli[2].tcp  "rcvd ack"  ETV
vector 230  NClients.cli[2].tcp  "send window"  ETV
vector 236  NClients.cli[2].tcp  cwnd  ETV
vector 231  NClients.cli[2].tcp  "send seq"  ETV
vector 235  NClients.cli[2].tcp  "unacked bytes"  ETV
vector 80  NClients.cli[2].ppp[0].queue  "queue length"  ETV
vector 641  NClients.srv.tcp  "rcvd seq"  ETV
vector 642  NClients.srv.tcp  "rcvd ack"  ETV
vector 638  NClients.srv.tcp  "send window"  ETV
vector 640  NClients.srv.tcp  "sent ack"  ETV
vector 245  NClients.cli[3].tcp  "rcvd seq"  ETV
vector 246  NClients.cli[3].tcp  "rcvd ack"  ETV
vector 242  NClients.cli[3].tcp  "send window"  ETV
vector 248  NClients.cli[3].tcp  cwnd  ETV
vector 243  NClients.cli[3].tcp  "send seq"  ETV
vector 247  NClients.cli[3].tcp  "unacked bytes"  ETV
vector 84  NClients.cli[3].ppp[0].queue  "queue length"  ETV
vector 653  NClients.srv.tcp  "rcvd seq"  ETV
vector 654  NClients.srv.tcp  "rcvd ack"  ETV
vector 650  NClients.srv.tcp  "send window"  ETV
vector 652  NClients.srv.tcp  "sent ack"  ETV
vector 257  NClients.cli[4].tcp  "rcvd seq"  ETV
vector 258  NClients.cli[4].tcp  "rcvd ack"  ETV
vector 254  NClients.cli[4].tcp  "send window"  ETV
vector 260  NClients.cli[4].tcp  cwnd  ETV
vector 255  NClients.cli[4].tcp  "send seq"  ETV
vector 259  NClients.cli[4].tcp  "unacked bytes"  ETV
vector 88  NClients.cli[4].ppp[0].queue  "queue length"  ETV
vector 665  NClients.srv.tcp  "rcvd seq"  ETV
vector 666  NClients.srv.tcp  "rcvd ack"  ETV
vector 662  NClients.srv.tcp  "send window"  ETV
vector 664  NClients.srv.tcp  "sent ack"  ETV
vector 269  NClients.cli[5].tcp  "rcvd seq"  ETV
vector 270  NClients.cli[5].tcp  "rcvd ack"  ETV
vector 266  NClients.cli[5].tcp  "send window"  ETV
vector 272  NClients.cli[5].tcp  cwnd  ETV
vector 267  NClients.cli[5].tcp  "send seq"  ETV
vector 271  NClients.cli[5].tcp  "unacked bytes"  ETV
vector 92  NClients.cli[5].ppp[0].queue  "queue length"  ETV
vector 677  NClients.srv.tcp  "rcvd seq"  ETV
vector 678  NClients.srv.tcp  "rcvd ack"  ETV
vector 674  NClients.srv.tcp  "send window"  ETV
vector 676  NClients.srv.tcp  "sent ack"  ETV
vector 281  NClients.cli[6].tcp  "rcvd seq"  ETV
vector 282  NClients.cli[6].tcp  "rcvd ack"  ETV
vector 278  NClients.cli[6].tcp  "send window"  ETV
vector 284  NClients.cli[6].tcp  cwnd  ETV
vector 279  NClients.cli[6].tcp  "send seq"  ETV
vector 283  NClients.cli[6].tcp  "unacked bytes"  ETV
vector 96  NClients.cli[6].ppp[0].queue  "queue length"  ETV
vector 200  NClients.srv.tcp  cwnd  ETV
vector 199  NClients.srv.tcp  "unacked bytes"  ETV
vector 293  NClients.cli[7].tcp  "rcvd seq"  ETV
vector 294  NClients.cli[7].tcp  "rcvd ack"  ETV
vector 290  NClients.cli[7].tcp  "send window"  ETV
vector 296  NClients.cli[7].tcp  cwnd  ETV
vector 291  NClients.cli[7].tcp  "send seq"  ETV
vector 295  NClients.cli[7].tcp  "unacked bytes"  ETV
vector 100  NClients.cli[7].ppp[0].queue  "queue length"  ETV
vector 572  NClients.srv.tcp  cwnd  ETV
vector 571  NClients.srv.tcp  "unacked bytes"  ETV
vector 305  NClients.cli[8].tcp  "rcvd seq"  ETV
vector 306  NClients.cli[8].tcp  "rcvd ack"  ETV
vector 302  NClients.cli[8].tcp  "send window"  ETV
vector 308  NClients.cli[8].tcp  cwnd  ETV
vector 303  NClients.cli[8].tcp  "send seq"  ETV
vector 307  NClients.cli[8].tcp  "unacked bytes"  ETV
vector 104  NClients.cli[8].ppp[0].queue  "queue length"  ETV
vector 584  NClients.srv.tcp  cwnd  ETV
vector 583  NClients.srv.tcp  "unacked bytes"  ETV
vector 317  NClients.cli[9].tcp  "rcvd seq"  ETV
vector 318  NClients.cli[9].tcp  "rcvd ack"  ETV
vector 314  NClients.cli[9].tcp  "send window"  ETV
vector 320  NClients.cli[9].tcp  cwnd  ETV
vector 315  NClients.cli[9].tcp  "send seq"  ETV
vector 319  NClients.cli[9].tcp  "unacked bytes"  ETV
vector 108  NClients.cli[9].ppp[0].queue  "queue length"  ETV
vector 596  NClients.srv.tcp  cwnd  ETV
vector 595  NClients.srv.tcp  "unacked bytes"  ETV
vector 329  NClients.cli[10].tcp  "rcvd seq"  ETV
vector 330  NClients.cli[10].tcp  "rcvd ack"  ETV
vector 326  NClients.cli[10].tcp  "send window"  ETV
vector 332  NClients.cli[10].tcp  cwnd  ETV
vector 327  NClients.cli[10].tcp  "send seq"  ETV
vector 331  NClients.cli[10].tcp  "unacked bytes"  ETV
vector 112  NClients.cli[10].ppp[0].queue  "queue length"  ETV
vector 608  NClients.srv.tcp  cwnd  ETV
vector 607  NClients.srv.tcp  "unacked bytes"  ETV
vector 620  NClients.srv.tcp  cwnd  ETV
vector 619  NClients.srv.tcp  "unacked bytes"  ETV
vector 632  NClients.srv.tcp  cwnd  ETV
vector 631  NClients.srv.tcp  "unacked bytes"  ETV
vector 644  NClients.srv.tcp  cwnd  ETV
vector 643  NClients.srv.tcp  "unacked bytes"  ETV
vector 656  NClients.srv.tcp  cwnd  ETV
vector 655  NClients.srv.tcp  "unacked bytes"  ETV
vector 64  NClients.r2.ppp[1].queue  "queue length"  ETV
vector 68  NClients.r3.ppp[1].queue  "queue length"  ETV
vector 195  NClients.srv.tcp  "send seq"  ETV
vector 192  NClients.srv.ppp[0].queue  "queue length"  ETV
vector 668  NClients.srv.tcp  cwnd  ETV
vector 667  NClients.srv.tcp  "unacked bytes"  ETV
vector 214  NClients.cli[0].tcp  "measured RTT"  ETV
vector 215  NClients.cli[0].tcp  "smoothed RTT"  ETV
vector 216  NClients.cli[0].tcp  RTTVAR  ETV
vector 217  NClients.cli[0].tcp  RTO  ETV
vector 567  NClients.srv.tcp  "send seq"  ETV
vector 680  NClients.srv.tcp  cwnd  ETV
vector 679  NClients.srv.tcp  "unacked bytes"  ETV
vector 579  NClients.srv.tcp  "send seq"  ETV
vector 66  NClients.r3.ppp[0].queue  "queue length"  ETV
vector 591  NClients.srv.tcp  "send seq"  ETV
vector 603  NClients.srv.tcp  "send seq"  ETV
vector 615  NClients.srv.tcp  "send seq"  ETV
vector 62  NClients.r2.ppp[0].queue  "queue length"  ETV
vector 627  NClients.srv.tcp  "send seq"  ETV
vector 639  NClients.srv.tcp  "send seq"  ETV
vector 651  NClients.srv.tcp  "send seq"  ETV
vector 226  NClients.cli[1].tcp  "measured RTT"  ETV
vector 227  NClients.cli[1].tcp  "smoothed RTT"  ETV
vector 228  NClients.cli[1].tcp  RTTVAR  ETV
vector 229  NClients.cli[1].tcp  RTO  ETV
vector 238  NClients.cli[2].tcp  "measured RTT"  ETV
vector 239  NClients.cli[2].tcp  "smoothed RTT"  ETV
vector 240  NClients.cli[2].tcp  RTTVAR  ETV
vector 241  NClients.cli[2].tcp  RTO  ETV
vector 250  NClients.cli[3].tcp  "measured RTT"  ETV
vector 251  NClients.cli[3].tcp  "smoothed RTT"  ETV
vector 252  NClients.cli[3].tcp  RTTVAR  ETV
vector 253  NClients.cli[3].tcp  RTO  ETV
vector 202  NClients.srv.tcp  "measured RTT"  ETV
vector 203  NClients.srv.tcp  "smoothed RTT"  ETV
vector 204  NClients.srv.tcp  RTTVAR  ETV
vector 205  NClients.srv.tcp  RTO  ETV
vector 574  NClients.srv.tcp  "measured RTT"  ETV
vector 575  NClients.srv.tcp  "smoothed RTT"  ETV
vector 576  NClients.srv.tcp  RTTVAR  ETV
vector 577  NClients.srv.tcp  RTO  ETV
vector 193  NClients.srv.ppp[0].queue  drops  ETV
vector 586  NClients.srv.tcp  "measured RTT"  ETV
vector 587  NClients.srv.tcp  "smoothed RTT"  ETV
vector 588  NClients.srv.tcp  RTTVAR  ETV
vector 589  NClients.srv.tcp  RTO  ETV
vector 262  NClients.cli[4].tcp  "measured RTT"  ETV
vector 263  NClients.cli[4].tcp  "smoothed RTT"  ETV
vector 264  NClients.cli[4].tcp  RTTVAR  ETV
vector 265  NClients.cli[4].tcp  RTO  ETV
vector 598  NClients.srv.tcp  "measured RTT"  ETV
vector 599  NClients.srv.tcp  "smoothed RTT"  ETV
vector 600  NClients.srv.tcp  RTTVAR  ETV
vector 601  NClients.srv.tcp  RTO  ETV
vector 274  NClients.cli[5].tcp  "measured RTT"  ETV
vector 275  NClients.cli[5].tcp  "smoothed RTT"  ETV
vector 276  NClients.cli[5].tcp  RTTVAR  ETV
vector 277  NClients.cli[5].tcp  RTO  ETV
vector 610  NClients.srv.tcp  "measured RTT"  ETV
vector 611  NClients.srv.tcp  "smoothed RTT"  ETV
vector 612  NClients.srv.tcp  RTTVAR  ETV
vector 613  NClients.srv.tcp  RTO  ETV
vector 286  NClients.cli[6].tcp  "measured RTT"  ETV
vector 287  NClients.cli[6].tcp  "smoothed RTT"  ETV
vector 288  NClients.cli[6].tcp  RTTVAR  ETV
vector 289  NClients.cli[6].tcp  RTO  ETV
vector 622  NClients.srv.tcp  "measured RTT"  ETV
vector 623  NClients.srv.tcp  "smoothed RTT"  ETV
vector 624  NClients.srv.tcp  RTTVAR  ETV
vector 625  NClients.srv.tcp  RTO  ETV
vector 298  NClients.cli[7].tcp  "measured RTT"  ETV
vector 299  NClients.cli[7].tcp  "smoothed RTT"  ETV
vector 300  NClients.cli[7].tcp  RTTVAR  ETV
vector 301  NClients.cli[7].tcp  RTO  ETV
vector 310  NClients.cli[8].tcp  "measured RTT"  ETV
vector 311  NClients.cli[8].tcp  "smoothed RTT"  ETV
vector 312  NClients.cli[8].tcp  RTTVAR  ETV
vector 313  NClients.cli[8].tcp  RTO  ETV
vector 646  NClients.srv.tcp  "measured RTT"  ETV
vector 647  NClients.srv.tcp  "smoothed RTT"  ETV
vector 648  NClients.srv.tcp  RTTVAR  ETV
vector 649  NClients.srv.tcp  RTO  ETV
vector 634  NClients.srv.tcp  "measured RTT"  ETV
vector 635  NClients.srv.tcp  "smoothed RTT"  ETV
vector 636  NClients.srv.tcp  RTTVAR  ETV
vector 637  NClients.srv.tcp  RTO  ETV
vector 658  NClients.srv.tcp  "measured RTT"  ETV
vector 659  NClients.srv.tcp  "smoothed RTT"  ETV
vector 660  NClients.srv.tcp  RTTVAR  ETV
vector 661  NClients.srv.tcp  RTO  ETV
644	1062	1.0008276	1024
644	1062	1.0008276	2048
644	2066	1.009585999999	3072
646	2066	1.009585999999	0.005516799999
647	2066	1.009585999999	0.000689599999
648	2066	1.009585999999	0.6569396
649	2066	1.009585999999	2.628447999999
638	603	1.000414	14336
638	1062	1.0008276	14336
638	2066	1.009585999999	14336
639	1411	1.0040692	250104
640	603	1.000414	250001
640	1408	1.0040692	250312
640	1411	1.0040692	250312
640	2071	1.009623599999	250313
640	2074	1.009623599999	250313
641	603	1.000414	250000
641	1062	1.0008276	250001
641	1408	1.0040692	250001
641	2066	1.009585999999	250312
641	2071	1.009623599999	250312
641	2576	1.014190799999	250313
642	603	1.000414	0
642	1062	1.0008276	250104
642	1408	1.0040692	250104
642	2066	1.009585999999	250217
642	2071	1.009623599999	250217
642	2576	1.014190799999	250218
643	1062	1.0008276	0
643	1411	1.0040692	113
643	2066	1.009585999999	0
643	2074	1.009623599999	1
608	1000	1.0007148	1024
608	1000	1.0007148	2048
608	1853	1.007503599999	3072
608	2346	1.012627599999	4096
610	1853	1.007503599999	0.004341599999
610	2346	1.012627599999	0.005124
611	1853	1.007503599999	0.000542699999
611	2346	1.012627599999	0.001115362499
612	1853	1.007503599999	0.6567927
612	2346	1.012627599999	0.575266275001
613	1853	1.007503599999	2.627713499999
613	2346	1.012627599999	2.302180462503
602	446	1.0003012	14336
602	1000	1.0007148	14336
602	1853	1.007503599999	14336
602	2346	1.012627599999	14336
603	1297	1.003162	250076
603	1853	1.007503599999	251100
604	446	1.0003012	250001
604	1294	1.003162	250338
604	1297	1.003162	250338
604	1853	1.007503599999	250338
604	2351	1.012665199999	250339
604	2354	1.012665199999	250339
605	446	1.0003012	250000
605	1000	1.0007148	250001
605	1294	1.003162	250001
605	1853	1.007503599999	250338
605	2346	1.012627599999	250338
605	2351	1.012665199999	250338
605	2876	1.016063599999	250339
606	446	1.0003012	0
606	1000	1.0007148	250076
606	1294	1.003162	250076
606	1853	1.007503599999	251100
606	2346	1.012627599999	251382
606	2351	1.012665199999	251382
606	2876	1.016063599999	251383
607	1000	1.0007148	0
607	1297	1.003162	1024
607	1853	1.007503599999	0
607	1853	1.007503599999	282
607	2346	1.012627599999	0
607	2354	1.012665199999	1
200	819	1.0005644	1024
200	819	1.0005644	2048
200	1572	1.005402	3072
200	2409	1.012842799999	4096
202	1572	1.005402	0.003616
202	2409	1.012842799999	0.007440799999
203	1572	1.005402	0.000452
203	2409	1.012842799999	0.001325599999
204	1572	1.005402	0.656702
204	2409	1.012842799999	0.57548785
205	1572	1.005402	2.62726
205	2409	1.012842799999	2.303276999999
194	335	1.0001508	14336
194	819	1.0005644	14336
194	1572	1.005402	14336
194	2409	1.012842799999	14336
195	1134	1.001786	250038
195	1572	1.005402	251062
196	335	1.0001508	250001
196	1131	1.001786	250369
196	1134	1.001786	250369
196	1572	1.005402	250369
196	2414	1.012880399999	250370
196	2417	1.012880399999	250370
197	335	1.0001508	250000
197	819	1.0005644	250001
197	1131	1.001786	250001
197	1572	1.005402	250369
197	2409	1.012842799999	250369
197	2414	1.012880399999	250369
197	2897	1.016138799999	250370
198	335	1.0001508	0
198	819	1.0005644	250038
198	1131	1.001786	250038
198	1572	1.005402	251062
198	2409	1.012842799999	252036
198	2414	1.012880399999	252036
198	2897	1.016138799999	252037
199	819	1.0005644	0
199	1134	1.001786	1024
199	1572	1.005402	0
199	1572	1.005402	974
199	2409	1.012842799999	0
199	2417	1.012880399999	1
632	1047	1.00079	1024
632	1047	1.00079	2048
632	2108	1.010149199999	3072
632	2622	1.014321199999	4096
634	2108	1.010149199999	0.006366399999
634	2622	1.014321199999	0.004172
635	2108	1.010149199999	0.000795799999
635	2622	1.014321199999	0.001217824999
636	2108	1.010149199999	0.6570458
636	2622	1.014321199999	0.575337100001
637	2108	1.010149199999	2.628978999999
637	2622	1.014321199999	2.302566225003
626	549	1.0003764	14336
626	1047	1.00079	14336
626	2108	1.010149199999	14336
626	2622	1.014321199999	14336
627	1373	1.0037828	250095
627	2108	1.010149199999	251119
628	549	1.0003764	250001
628	1370	1.0037828	250340
628	1373	1.0037828	250340
628	2108	1.010149199999	250340
628	2627	1.014358799999	250341
628	2630	1.014358799999	250341
629	549	1.0003764	250000
629	1047	1.00079	250001
629	1370	1.0037828	250001
629	2108	1.010149199999	250340
629	2622	1.014321199999	250340
629	2627	1.014358799999	250340
629	2913	1.016213999999	250341
630	549	1.0003764	0
630	1047	1.00079	250095
630	1370	1.0037828	250095
630	2108	1.010149199999	251119
630	2622	1.014321199999	251177
630	2627	1.014358799999	251177
630	2913	1.016213999999	251178
631	1047	1.00079	0
631	1373	1.0037828	1024
631	2108	1.010149199999	0
631	2108	1.010149199999	58
631	2622	1.014321199999	0
631	2630	1.014358799999	1
620	1022	1.0007524	1024
620	1022	1.0007524	2048
620	1922	1.008397999999	3072
620	1989	1.009254799999	4096
620	2521	1.014077999999	5120
620	2674	1.014934799999	6144
620	2964	1.016528399999	7168
622	1922	1.008397999999	0.004923999999
622	2521	1.014077999999	0.00568
622	2964	1.016528399999	0.0015936
623	1922	1.008397999999	0.000615499999
623	2521	1.014077999999	0.001248562499
623	2964	1.016528399999	0.001291692186
624	1922	1.008397999999	0.6568655
624	2521	1.014077999999	0.575390375001
624	2964	1.016528399999	0.503509707814
625	1922	1.008397999999	2.628077499999
625	2521	1.014077999999	2.302810062503
625	2964	1.016528399999	2.015330523442
614	495	1.0003388	14336
614	1022	1.0007524	14336
614	1922	1.008397999999	14336
614	1989	1.009254799999	14336
614	2521	1.014077999999	14336
614	2674	1.014934799999	14336
614	2964	1.016528399999	14336
615	1331	1.003474	250085
615	1331	1.003474	251109
615	1922	1.008397999999	252133
615	1922	1.008397999999	253157
615	2674	1.014934799999	254181
616	495	1.0003388	250001
616	1328	1.003474	250344
616	1331	1.003474	250344
616	1331	1.003474	250344
616	1922	1.008397999999	250344
616	1922	1.008397999999	250344
616	2674	1.014934799999	250344
616	2969	1.016565999999	250345
616	2972	1.016565999999	250345
617	495	1.0003388	250000
617	1022	1.0007524	250001
617	1328	1.003474	250001
617	1922	1.008397999999	250344
617	1989	1.009254799999	250344
617	2521	1.014077999999	250344
617	2674	1.014934799999	250344
617	2964	1.016528399999	250344
617	2969	1.016565999999	250344
617	3078	1.016905199999	250345
618	495	1.0003388	0
618	1022	1.0007524	250085
618	1328	1.003474	250085
618	1922	1.008397999999	251109
618	1989	1.009254799999	252133
618	2521	1.014077999999	253157
618	2674	1.014934799999	254181
618	2964	1.016528399999	254354
618	2969	1.016565999999	254354
618	3078	1.016905199999	254355
619	1022	1.0007524	0
619	1331	1.003474	2048
619	1922	1.008397999999	1024
619	1922	1.008397999999	3072
619	1989	1.009254799999	2048
619	2521	1.014077999999	1024
619	2674	1.014934799999	0
619	2674	1.014934799999	173
619	2964	1.016528399999	0
619	2972	1.016565999999	1
656	1072	1.0008652	1024
656	1072	1.0008652	2048
656	2192	1.011209199999	3072
656	2265	1.012065999999	4096
656	2812	1.015950799999	5120
656	3059	1.016807599999	6144
656	3144	1.018369999999	7168
658	2192	1.011209199999	0.006834399999
658	2812	1.015950799999	0.0047416
658	3144	1.018369999999	0.0015624
659	2192	1.011209199999	0.000854299999
659	2812	1.015950799999	0.001340212499
659	3144	1.018369999999	0.001367985936
660	2192	1.011209199999	0.6571043
660	2812	1.015950799999	0.575452175001
660	3144	1.018369999999	0.503548426564
661	2192	1.011209199999	2.629271499999
661	2812	1.015950799999	2.303148912503
661	3144	1.018369999999	2.015561692192
650	657	1.0004516	14336
650	1072	1.0008652	14336
650	2192	1.011209199999	14336
650	2265	1.012065999999	14336
650	2812	1.015950799999	14336
650	3059	1.016807599999	14336
650	3144	1.018369999999	14336
651	1434	1.0043748	250113
651	1434	1.0043748	251137
651	2192	1.011209199999	252161
651	2192	1.011209199999	253185
651	3059	1.016807599999	254209
652	657	1.0004516	250001
652	1431	1.0043748	250336
652	1434	1.0043748	250336
652	1434	1.0043748	250336
652	2192	1.011209199999	250336
652	2192	1.011209199999	250336
652	3059	1.016807599999	250336
652	3149	1.018407599999	250337
652	3152	1.018407599999	250337
653	657	1.0004516	250000
653	1072	1.0008652	250001
653	1431	1.0043748	250001
653	2192	1.011209199999	250336
653	2265	1.012065999999	250336
653	2812	1.015950799999	250336
653	3059	1.016807599999	250336
653	3144	1.018369999999	250336
653	3149	1.018407599999	250336
653	3225	1.018746799999	250337
654	657	1.0004516	0
654	1072	1.0008652	250113
654	1431	1.0043748	250113
654	2192	1.011209199999	251137
654	2265	1.012065999999	252161
654	2812	1.015950799999	253185
654	3059	1.016807599999	254209
654	3144	1.018369999999	254603
654	3149	1.018407599999	254603
654	3225	1.018746799999	254604
655	1072	1.0008652	0
655	1434	1.0043748	2048
655	2192	1.011209199999	1024
655	2192	1.011209199999	3072
655	2265	1.012065999999	2048
655	2812	1.015950799999	1024
655	3059	1.016807599999	0
655	3059	1.016807599999	394
655	3144	1.018369999999	0
655	3152	1.018407599999	1
vector 689  NClients.srv.tcp  "rcvd seq"  ETV
vector 690  NClients.srv.tcp  "rcvd ack"  ETV
vector 686  NClients.srv.tcp  "send window"  ETV
vector 688  NClients.srv.tcp  "sent ack"  ETV
vector 701  NClients.srv.tcp  "rcvd seq"  ETV
vector 702  NClients.srv.tcp  "rcvd ack"  ETV
vector 698  NClients.srv.tcp  "send window"  ETV
vector 700  NClients.srv.tcp  "sent ack"  ETV
vector 713  NClients.srv.tcp  "rcvd seq"  ETV
vector 714  NClients.srv.tcp  "rcvd ack"  ETV
vector 710  NClients.srv.tcp  "send window"  ETV
vector 712  NClients.srv.tcp  "sent ack"  ETV
vector 725  NClients.srv.tcp  "rcvd seq"  ETV
vector 726  NClients.srv.tcp  "rcvd ack"  ETV
vector 722  NClients.srv.tcp  "send window"  ETV
vector 724  NClients.srv.tcp  "sent ack"  ETV
vector 737  NClients.srv.tcp  "rcvd seq"  ETV
vector 738  NClients.srv.tcp  "rcvd ack"  ETV
vector 734  NClients.srv.tcp  "send window"  ETV
vector 736  NClients.srv.tcp  "sent ack"  ETV
vector 341  NClients.cli[11].tcp  "rcvd seq"  ETV
vector 342  NClients.cli[11].tcp  "rcvd ack"  ETV
vector 338  NClients.cli[11].tcp  "send window"  ETV
vector 344  NClients.cli[11].tcp  cwnd  ETV
vector 339  NClients.cli[11].tcp  "send seq"  ETV
vector 343  NClients.cli[11].tcp  "unacked bytes"  ETV
vector 116  NClients.cli[11].ppp[0].queue  "queue length"  ETV
vector 749  NClients.srv.tcp  "rcvd seq"  ETV
vector 750  NClients.srv.tcp  "rcvd ack"  ETV
vector 746  NClients.srv.tcp  "send window"  ETV
vector 748  NClients.srv.tcp  "sent ack"  ETV
vector 353  NClients.cli[12].tcp  "rcvd seq"  ETV
vector 354  NClients.cli[12].tcp  "rcvd ack"  ETV
vector 350  NClients.cli[12].tcp  "send window"  ETV
vector 356  NClients.cli[12].tcp  cwnd  ETV
vector 351  NClients.cli[12].tcp  "send seq"  ETV
vector 355  NClients.cli[12].tcp  "unacked bytes"  ETV
vector 120  NClients.cli[12].ppp[0].queue  "queue length"  ETV
vector 761  NClients.srv.tcp  "rcvd seq"  ETV
vector 762  NClients.srv.tcp  "rcvd ack"  ETV
vector 758  NClients.srv.tcp  "send window"  ETV
vector 760  NClients.srv.tcp  "sent ack"  ETV
vector 365  NClients.cli[13].tcp  "rcvd seq"  ETV
vector 366  NClients.cli[13].tcp  "rcvd ack"  ETV
vector 362  NClients.cli[13].tcp  "send window"  ETV
vector 368  NClients.cli[13].tcp  cwnd  ETV
vector 363  NClients.cli[13].tcp  "send seq"  ETV
vector 367  NClients.cli[13].tcp  "unacked bytes"  ETV
vector 124  NClients.cli[13].ppp[0].queue  "queue length"  ETV
vector 773  NClients.srv.tcp  "rcvd seq"  ETV
vector 774  NClients.srv.tcp  "rcvd ack"  ETV
vector 770  NClients.srv.tcp  "send window"  ETV
vector 772  NClients.srv.tcp  "sent ack"  ETV
vector 377  NClients.cli[14].tcp  "rcvd seq"  ETV
vector 378  NClients.cli[14].tcp  "rcvd ack"  ETV
vector 374  NClients.cli[14].tcp  "send window"  ETV
vector 380  NClients.cli[14].tcp  cwnd  ETV
vector 375  NClients.cli[14].tcp  "send seq"  ETV
vector 379  NClients.cli[14].tcp  "unacked bytes"  ETV
vector 128  NClients.cli[14].ppp[0].queue  "queue length"  ETV
vector 785  NClients.srv.tcp  "rcvd seq"  ETV
vector 786  NClients.srv.tcp  "rcvd ack"  ETV
vector 782  NClients.srv.tcp  "send window"  ETV
vector 784  NClients.srv.tcp  "sent ack"  ETV
vector 389  NClients.cli[15].tcp  "rcvd seq"  ETV
vector 390  NClients.cli[15].tcp  "rcvd ack"  ETV
vector 386  NClients.cli[15].tcp  "send window"  ETV
vector 392  NClients.cli[15].tcp  cwnd  ETV
vector 387  NClients.cli[15].tcp  "send seq"  ETV
vector 391  NClients.cli[15].tcp  "unacked bytes"  ETV
vector 132  NClients.cli[15].ppp[0].queue  "queue length"  ETV
vector 797  NClients.srv.tcp  "rcvd seq"  ETV
vector 798  NClients.srv.tcp  "rcvd ack"  ETV
vector 794  NClients.srv.tcp  "send window"  ETV
vector 796  NClients.srv.tcp  "sent ack"  ETV
vector 401  NClients.cli[16].tcp  "rcvd seq"  ETV
vector 402  NClients.cli[16].tcp  "rcvd ack"  ETV
vector 398  NClients.cli[16].tcp  "send window"  ETV
vector 404  NClients.cli[16].tcp  cwnd  ETV
vector 399  NClients.cli[16].tcp  "send seq"  ETV
vector 403  NClients.cli[16].tcp  "unacked bytes"  ETV
vector 136  NClients.cli[16].ppp[0].queue  "queue length"  ETV
vector 809  NClients.srv.tcp  "rcvd seq"  ETV
vector 810  NClients.srv.tcp  "rcvd ack"  ETV
vector 806  NClients.srv.tcp  "send window"  ETV
vector 808  NClients.srv.tcp  "sent ack"  ETV
vector 413  NClients.cli[17].tcp  "rcvd seq"  ETV
vector 414  NClients.cli[17].tcp  "rcvd ack"  ETV
vector 410  NClients.cli[17].tcp  "send window"  ETV
vector 416  NClients.cli[17].tcp  cwnd  ETV
vector 411  NClients.cli[17].tcp  "send seq"  ETV
vector 415  NClients.cli[17].tcp  "unacked bytes"  ETV
vector 140  NClients.cli[17].ppp[0].queue  "queue length"  ETV
vector 692  NClients.srv.tcp  cwnd  ETV
vector 691  NClients.srv.tcp  "unacked bytes"  ETV
vector 425  NClients.cli[18].tcp  "rcvd seq"  ETV
vector 426  NClients.cli[18].tcp  "rcvd ack"  ETV
vector 422  NClients.cli[18].tcp  "send window"  ETV
vector 428  NClients.cli[18].tcp  cwnd  ETV
vector 423  NClients.cli[18].tcp  "send seq"  ETV
vector 427  NClients.cli[18].tcp  "unacked bytes"  ETV
vector 144  NClients.cli[18].ppp[0].queue  "queue length"  ETV
vector 704  NClients.srv.tcp  cwnd  ETV
vector 703  NClients.srv.tcp  "unacked bytes"  ETV
vector 437  NClients.cli[19].tcp  "rcvd seq"  ETV
vector 438  NClients.cli[19].tcp  "rcvd ack"  ETV
vector 434  NClients.cli[19].tcp  "send window"  ETV
vector 440  NClients.cli[19].tcp  cwnd  ETV
vector 435  NClients.cli[19].tcp  "send seq"  ETV
vector 439  NClients.cli[19].tcp  "unacked bytes"  ETV
vector 148  NClients.cli[19].ppp[0].queue  "queue length"  ETV
vector 716  NClients.srv.tcp  cwnd  ETV
vector 715  NClients.srv.tcp  "unacked bytes"  ETV
vector 321  NClients.cli[9].tcp  ssthresh  ETV
vector 449  NClients.cli[20].tcp  "rcvd seq"  ETV
vector 450  NClients.cli[20].tcp  "rcvd ack"  ETV
vector 446  NClients.cli[20].tcp  "send window"  ETV
vector 452  NClients.cli[20].tcp  cwnd  ETV
vector 447  NClients.cli[20].tcp  "send seq"  ETV
vector 451  NClients.cli[20].tcp  "unacked bytes"  ETV
vector 152  NClients.cli[20].ppp[0].queue  "queue length"  ETV
vector 728  NClients.srv.tcp  cwnd  ETV
vector 727  NClients.srv.tcp  "unacked bytes"  ETV
vector 333  NClients.cli[10].tcp  ssthresh  ETV
vector 461  NClients.cli[21].tcp  "rcvd seq"  ETV
vector 462  NClients.cli[21].tcp  "rcvd ack"  ETV
vector 458  NClients.cli[21].tcp  "send window"  ETV
vector 464  NClients.cli[21].tcp  cwnd  ETV
vector 459  NClients.cli[21].tcp  "send seq"  ETV
vector 463  NClients.cli[21].tcp  "unacked bytes"  ETV
vector 156  NClients.cli[21].ppp[0].queue  "queue length"  ETV
vector 740  NClients.srv.tcp  cwnd  ETV
vector 739  NClients.srv.tcp  "unacked bytes"  ETV
vector 752  NClients.srv.tcp  cwnd  ETV
vector 751  NClients.srv.tcp  "unacked bytes"  ETV
vector 764  NClients.srv.tcp  cwnd  ETV
vector 763  NClients.srv.tcp  "unacked bytes"  ETV
vector 776  NClients.srv.tcp  cwnd  ETV
vector 775  NClients.srv.tcp  "unacked bytes"  ETV
vector 788  NClients.srv.tcp  cwnd  ETV
vector 787  NClients.srv.tcp  "unacked bytes"  ETV
vector 687  NClients.srv.tcp  "send seq"  ETV
vector 800  NClients.srv.tcp  cwnd  ETV
vector 799  NClients.srv.tcp  "unacked bytes"  ETV
vector 346  NClients.cli[11].tcp  "measured RTT"  ETV
vector 347  NClients.cli[11].tcp  "smoothed RTT"  ETV
vector 348  NClients.cli[11].tcp  RTTVAR  ETV
vector 349  NClients.cli[11].tcp  RTO  ETV
vector 699  NClients.srv.tcp  "send seq"  ETV
vector 812  NClients.srv.tcp  cwnd  ETV
vector 811  NClients.srv.tcp  "unacked bytes"  ETV
vector 711  NClients.srv.tcp  "send seq"  ETV
vector 735  NClients.srv.tcp  "send seq"  ETV
vector 723  NClients.srv.tcp  "send seq"  ETV
vector 747  NClients.srv.tcp  "send seq"  ETV
vector 358  NClients.cli[12].tcp  "measured RTT"  ETV
vector 359  NClients.cli[12].tcp  "smoothed RTT"  ETV
vector 360  NClients.cli[12].tcp  RTTVAR  ETV
vector 361  NClients.cli[12].tcp  RTO  ETV
vector 759  NClients.srv.tcp  "send seq"  ETV
vector 771  NClients.srv.tcp  "send seq"  ETV
vector 663  NClients.srv.tcp  "send seq"  ETV